 &FCI NORB=          28 , NELEC=           2 , MS2=           0 ,
 ORBSYM=1,1,1,1,1,1,1,1,1,1,1,1,1,1,1,1,1,1,1,1,1,1,1,1,1,1,1,1,
 ISYM=0,
 &end
  0.67336772562063207                1           1           1           1
  -8.8557633448616002E-015           2           1           1           1
 -0.13997706385236314                3           1           1           1
   8.1462614431870861E-015           4           1           1           1
   6.2149092830402347E-002           7           1           1           1
   3.4777736246383029E-014          11           1           1           1
 -0.10058139341889044               12           1           1           1
  -1.6098233857064770E-015          13           1           1           1
  -2.8460382438494608E-002          17           1           1           1
   7.2719608112947753E-015          21           1           1           1
   7.1193051454088163E-015          24           1           1           1
   6.8303724175960527E-003          27           1           1           1
  -2.4424906541753444E-015          28           1           1           1
   3.7891820716792174E-002           2           1           2           1
  -5.4551730737891213E-002           4           1           2           1
   1.2858637765678083E-015           7           1           2           1
  -5.8464307233388867E-003          10           1           2           1
  -2.8445030233226642E-002          11           1           2           1
  -2.7733891572179203E-015          12           1           2           1
   3.4287843296579188E-003          24           1           2           1
   2.1658022597570437E-015          27           1           2           1
  -4.6186273851814841E-003          28           1           2           1
   5.5363326203372490E-002           3           1           3           1
   1.1666015375944028E-015           4           1           3           1
  -2.8072798434506718E-002           7           1           3           1
  -1.5386997231914279E-015          10           1           3           1
  -1.6424361870548410E-014          11           1           3           1
   5.2750495557409925E-002          12           1           3           1
   1.5562580298759093E-002          17           1           3           1
  -1.8041124150158794E-015          21           1           3           1
  -1.2628786905111156E-015          24           1           3           1
  -4.6916666023860791E-003          27           1           3           1
  -3.8580250105724190E-015          28           1           3           1
   9.5734359608655617E-002           4           1           4           1
  -1.0321604682062002E-015           7           1           4           1
   1.0752984964029549E-002          10           1           4           1
   6.7190395753547183E-002          11           1           4           1
   1.6197113095195448E-014          12           1           4           1
  -5.6960258895874926E-003          24           1           4           1
   1.4304384258213884E-002          28           1           4           1
   8.5592288798218771E-002           5           1           5           1
   5.0462050321475840E-002          15           1           5           1
   8.1447481340852397E-003          16           1           5           1
  -2.9968160121322304E-003          22           1           5           1
   6.5443516044211211E-003          23           1           5           1
   8.5592288798219035E-002           6           1           6           1
   8.1447481340851512E-003          15           1           6           1
  -5.0462050321475993E-002          16           1           6           1
  -6.5443516044202711E-003          22           1           6           1
  -2.9968160121313986E-003          23           1           6           1
   4.4190524717042656E-002           7           1           7           1
   4.3090531143263888E-015          11           1           7           1
  -2.1434264022234049E-002          12           1           7           1
  -3.3053582145994596E-002          17           1           7           1
   2.9073965457371287E-015          24           1           7           1
   1.1480576731973800E-002          27           1           7           1
  -3.2196467714129540E-015          28           1           7           1
   2.8481473230771666E-002           8           1           8           1
   1.6652104120965606E-002          18           1           8           1
   1.1153860045950923E-002          19           1           8           1
  -8.9689853923348418E-004          25           1           8           1
   9.9662074146674162E-003          26           1           8           1
   2.8481473230771690E-002           9           1           9           1
   1.1153860045950956E-002          18           1           9           1
  -1.6652104120965738E-002          19           1           9           1
  -9.9662074146674145E-003          25           1           9           1
  -8.9689853923336383E-004          26           1           9           1
   1.2205872862830832E-002          10           1          10           1
   8.4911501181725649E-003          11           1          10           1
   3.7010325359965179E-014          12           1          10           1
   7.3109920895042535E-015          17           1          10           1
  -9.9616486797555158E-003          24           1          10           1
   4.1433870223706037E-014          27           1          10           1
   3.3839217465083879E-003          28           1          10           1
   8.6899883378226642E-002          11           1          11           1
   3.5188865710189532E-015          12           1          11           1
  -2.8657631823136853E-015          17           1          11           1
  -2.8423625850194471E-003          24           1          11           1
   1.2680394928521466E-014          27           1          11           1
   3.8125488374722169E-002          28           1          11           1
   9.7926759481177086E-002          12           1          12           1
   1.5411571619207781E-002          17           1          12           1
  -1.4158813010922700E-014          24           1          12           1
  -9.3548494503497073E-003          27           1          12           1
   3.7359004778636518E-014          28           1          12           1
   5.0243185815389849E-002          13           1          13           1
   2.0946785972419946E-015          17           1          13           1
  -1.3583348095782170E-015          28           1          13           1
   5.0243185815390140E-002          14           1          14           1
   8.6831891232147795E-002          15           1          15           1
  -2.1137041447984711E-003          22           1          15           1
   3.1606528535509299E-003          23           1          15           1
   8.6831891232147962E-002          16           1          16           1
   3.1606528535498956E-003          22           1          16           1
   2.1137041447976722E-003          23           1          16           1
   5.8571343753049246E-002          17           1          17           1
  -2.7586774052133931E-002          27           1          17           1
  -1.6098233857064770E-015          28           1          17           1
   3.9421375543331118E-002          18           1          18           1
  -1.2575978933166275E-002          25           1          18           1
   1.5553747250663986E-002          26           1          18           1
   3.9421375543331506E-002          19           1          19           1
   1.5553747250664071E-002          25           1          19           1
   1.2575978933166240E-002          26           1          19           1
   2.9744282594969067E-002          20           1          20           1
   2.4103982698697735E-015          27           1          20           1
   2.9744282594969685E-002          21           1          21           1
  -1.8838189624787778E-015          27           1          21           1
  -1.0301889451456770E-015          28           1          21           1
   3.4061237157315037E-002          22           1          22           1
   1.2175590397012215E-015          23           1          22           1
   3.4061237157315252E-002          23           1          23           1
   3.1755923629156683E-002          24           1          24           1
   2.2678040001444799E-014          27           1          24           1
   2.7381597856288541E-003          28           1          24           1
   3.7957310333290868E-002          25           1          25           1
   3.7957310333290979E-002          26           1          26           1
   4.3098805753090989E-002          27           1          27           1
   2.9545810242836978E-014          28           1          27           1
   5.9644798739006993E-002          28           1          28           1
  0.33770366276668395                2           2           1           1
  -1.4205216863905079E-015           3           2           1           1
 -0.13135113195318673                4           2           1           1
   3.7313901968261121E-015           7           2           1           1
  -6.0119089525870612E-003          10           2           1           1
  -2.5255886853919107E-002          11           2           1           1
   4.4287490341687885E-015          12           2           1           1
   1.4571677198205180E-015          17           2           1           1
  -2.5257573810222311E-015          21           2           1           1
   2.3387093829772311E-003          24           2           1           1
   4.7861020702200108E-015          27           2           1           1
  -1.0662025621606175E-002          28           2           1           1
   2.1496055143581150E-002           3           2           2           1
   8.2559827030426192E-015           4           2           2           1
  -3.8825200663360711E-002           7           2           2           1
  -2.2427806140035145E-014          10           2           2           1
   8.3249379612126972E-015          11           2           2           1
  -7.7642930729217097E-003          12           2           2           1
   3.4652935629044049E-003          17           2           2           1
  -2.2645513936270234E-014          24           2           2           1
  -5.6213549771667731E-003          27           2           2           1
   3.2297081675736194E-014          28           2           2           1
  -2.0139055353918245E-015           3           2           3           1
   3.5423297868353833E-002           4           2           3           1
   1.8071481810988388E-015           7           2           3           1
   4.6515735970939533E-003          10           2           3           1
   1.8811808483588880E-002          11           2           3           1
   2.9412236535186764E-015          12           2           3           1
  -1.7602416963311517E-003          24           2           3           1
   3.4745586585622074E-003          28           2           3           1
   5.8885188392032717E-015           4           2           4           1
   4.6397491622936729E-002           7           2           4           1
  -3.6711085560359180E-014          10           2           4           1
   9.9350444689099201E-003          12           2           4           1
  -1.7384283837282737E-002          17           2           4           1
  -3.3990171788289558E-014          24           2           4           1
   8.9426498879858381E-003          27           2           4           1
   4.5297099404706387E-014          28           2           4           1
   1.5388820470333244E-015           5           2           5           1
   1.0842658717376850E-002           8           2           5           1
   4.2091970141597060E-002           9           2           5           1
  -2.1604032717512447E-015          15           2           5           1
   6.1987384279194408E-003          18           2           5           1
  -5.5306647902578047E-003          19           2           5           1
  -1.0571276113594680E-015          23           2           5           1
  -4.6848841613496292E-003          25           2           5           1
   7.6739913344485238E-004          26           2           5           1
   1.4779844015322396E-015           6           2           6           1
   4.2091970141597178E-002           8           2           6           1
  -1.0842658717376899E-002           9           2           6           1
   1.9090631853124762E-015          16           2           6           1
   5.5306647902578152E-003          18           2           6           1
   6.1987384279195284E-003          19           2           6           1
   7.6739913344484902E-004          25           2           6           1
   4.6848841613496336E-003          26           2           6           1
  -2.4609763012162222E-015           7           2           7           1
   1.6454813933000644E-002          10           2           7           1
  -1.9239709111043137E-002          11           2           7           1
  -2.1840168562548001E-015          12           2           7           1
  -5.3060885004612935E-003          24           2           7           1
   1.6529204220627758E-015          27           2           7           1
  -4.0980567346647007E-003          28           2           7           1
  -1.9696477436104533E-003          15           2           8           1
   4.5054078220602900E-003          16           2           8           1
  -1.2818628781668024E-002          22           2           8           1
  -2.2969994862120204E-003          23           2           8           1
  -4.5054078220604921E-003          15           2           9           1
  -1.9696477436103288E-003          16           2           9           1
  -2.2969994862119571E-003          22           2           9           1
   1.2818628781668078E-002          23           2           9           1
   1.0699037142347656E-013          10           2          10           1
  -8.0703672911131008E-015          11           2          10           1
   5.2254167984613726E-003          12           2          10           1
  -3.1599072317090027E-015          13           2          10           1
  -4.6232747182940242E-003          17           2          10           1
   8.2007100762893081E-014          24           2          10           1
  -2.9226095411083587E-003          27           2          10           1
  -9.4018542950990991E-014          28           2          10           1
  -9.0578586298128982E-015          11           2          11           1
   1.4110361776660760E-002          12           2          11           1
  -1.9192375687968555E-002          17           2          11           1
   3.1329973337879125E-014          24           2          11           1
   1.4519251504090766E-002          27           2          11           1
  -2.3710200469650999E-014          28           2          11           1
  -2.1647180575845582E-015          12           2          12           1
  -9.2738317025720107E-015          17           2          12           1
  -8.1800179083023200E-003          24           2          12           1
  -1.0889292939575412E-014          27           2          12           1
   1.1774547540718841E-002          28           2          12           1
  -2.7352711584577158E-003          20           2          13           1
  -1.5623275008551941E-002          21           2          13           1
   1.6508340214447294E-015          24           2          13           1
  -2.8753041614315578E-015          28           2          13           1
  -1.5623275008552068E-002          20           2          14           1
   2.7352711584576620E-003          21           2          14           1
  -2.2223840606336309E-015          15           2          15           1
   1.2086909547159774E-002          18           2          15           1
  -7.7214186955141375E-003          19           2          15           1
  -1.2463493819156943E-002          25           2          15           1
   4.1632816813262025E-003          26           2          15           1
  -1.6568777599923479E-015          16           2          16           1
  -7.7214186955142719E-003          18           2          16           1
  -1.2086909547160169E-002          19           2          16           1
  -4.1632816813260906E-003          25           2          16           1
  -1.2463493819156714E-002          26           2          16           1
  -1.4623718902484484E-015          17           2          17           1
   1.6897640027530587E-002          24           2          17           1
   9.9876838959361315E-003          28           2          17           1
  -1.7236061375710359E-002          22           2          18           1
   7.5502130808285843E-003          23           2          18           1
  -7.5502130808284681E-003          22           2          19           1
  -1.7236061375710456E-002          23           2          19           1
  -2.1724158930092052E-015          27           2          20           1
  -1.2629600056740520E-015          21           2          21           1
  -4.7209376433037741E-015          24           2          21           1
   3.6771800882018368E-015          27           2          21           1
   8.1097368904276380E-015          28           2          21           1
  -1.3403218861867748E-003          25           2          22           1
   4.8988665090557403E-003          26           2          22           1
  -1.3276597703171245E-015          23           2          23           1
   4.8988665090555685E-003          25           2          23           1
   1.3403218861871302E-003          26           2          23           1
   3.3082911410353688E-014          24           2          24           1
   5.8755371554258338E-003          27           2          24           1
  -4.8516746176119341E-014          28           2          24           1
  -2.2895802007788513E-014          27           2          27           1
  -4.7745894035840456E-003          28           2          27           1
   4.7824591509204595E-014          28           2          28           1
  0.36496945888917437                3           3           1           1
   8.6302492929846153E-015           4           3           1           1
  -5.5254438028138508E-002           7           3           1           1
  -2.1788126858268697E-015          10           3           1           1
  -3.2446267894670200E-014          11           3           1           1
  0.11155677827699975               12           3           1           1
   2.0539238439858123E-002          17           3           1           1
   1.0061396160665481E-015          20           3           1           1
  -2.8727020762175925E-015          21           3           1           1
  -2.2690183065776637E-015          24           3           1           1
   2.0617271596557653E-003          27           3           1           1
   1.8318679906315083E-015          28           3           1           1
  -3.4501752583376843E-015           3           3           2           1
   2.3727647660518512E-002           4           3           2           1
   3.5893597122305110E-015           7           3           2           1
   9.2412032783269586E-003          10           3           2           1
   2.5662459418040143E-002          11           3           2           1
  -2.9534461487598219E-003          24           3           2           1
  -5.0239760268633304E-015          27           3           2           1
   4.0945667666632268E-004          28           3           2           1
  -3.4404285823563231E-002           3           3           3           1
  -4.0722633598555547E-015           4           3           3           1
   1.8949064323292648E-002           7           3           3           1
   4.4677803123782667E-015          10           3           3           1
   1.0269562977782698E-014          11           3           3           1
  -3.9926269084591390E-002          12           3           3           1
  -1.1095278545899208E-002          17           3           3           1
   3.3133218391157016E-015          24           3           3           1
   3.9560899626656003E-003          27           3           3           1
  -3.4218830862231688E-002           4           3           4           1
  -1.2780575209259126E-015           7           3           4           1
  -1.2903709418368343E-002          10           3           4           1
  -4.7552613047057213E-002          11           3           4           1
  -1.7637367261125192E-014          12           3           4           1
   4.2953140966056321E-003          24           3           4           1
  -8.7512462554339976E-015          27           3           4           1
  -7.1392622024990249E-003          28           3           4           1
   5.9245108560450014E-003           5           3           5           1
  -3.2642515264153654E-015           9           3           5           1
  -4.6533746827649859E-002          15           3           5           1
  -7.5107064661856593E-003          16           3           5           1
  -1.0576358311278206E-015          18           3           5           1
   5.1152575800022474E-003          22           3           5           1
  -1.1170537001668692E-002          23           3           5           1
   5.9245108560450873E-003           6           3           6           1
  -3.2712547948232640E-015           8           3           6           1
  -7.5107064661855995E-003          15           3           6           1
   4.6533746827650178E-002          16           3           6           1
   1.1170537001668212E-002          22           3           6           1
   5.1152575800015639E-003          23           3           6           1
  -5.2449576020847204E-003           7           3           7           1
   1.6961258786363231E-015          10           3           7           1
  -3.3792413312028202E-015          11           3           7           1
   2.0914339411613130E-002          12           3           7           1
   2.4066697478029777E-002          17           3           7           1
  -5.1731366834855338E-003          27           3           7           1
   8.4410827023682460E-003           8           3           8           1
  -1.3318071426571227E-002          18           3           8           1
  -8.9206687452143378E-003          19           3           8           1
   5.1833054485251630E-004          25           3           8           1
  -5.7596143748575726E-003          26           3           8           1
   8.4410827023683552E-003           9           3           9           1
   1.2415199077131511E-015          15           3           9           1
  -8.9206687452145095E-003          18           3           9           1
   1.3318071426571411E-002          19           3           9           1
   5.7596143748573376E-003          25           3           9           1
   5.1833054485249104E-004          26           3           9           1
   5.8596942463094619E-003          10           3          10           1
  -5.3411083071508263E-003          11           3          10           1
   6.1360421951817123E-015          12           3          10           1
  -1.1077293596284399E-015          13           3          10           1
   1.6896206656014101E-015          17           3          10           1
   1.9326987926726602E-015          21           3          10           1
   6.3466837413803899E-003          24           3          10           1
   9.9212088197631054E-015          27           3          10           1
  -2.1230802642123719E-003          28           3          10           1
  -4.2254762444707557E-002          11           3          11           1
   5.7725092067473227E-015          12           3          11           1
   3.6984304507825527E-015          17           3          11           1
   1.1412586412737269E-003          24           3          11           1
  -2.2871901108387285E-002          28           3          11           1
  -4.6538541516579726E-002          12           3          12           1
  -9.4447865447634186E-003          17           3          12           1
   1.4221263056057865E-014          24           3          12           1
   9.4755951747603605E-003          27           3          12           1
  -2.6714741530042829E-014          28           3          12           1
  -1.4076236083285688E-002          13           3          13           1
   1.1870387485457545E-015          21           3          13           1
  -1.0117032595044934E-015          24           3          13           1
  -1.4076236083285752E-002          14           3          14           1
   1.2542050731312315E-015          20           3          14           1
  -4.5027374266912543E-002          15           3          15           1
  -1.1622647289044608E-015          18           3          15           1
   1.9460194057119473E-003          22           3          15           1
  -2.9099114002615108E-003          23           3          15           1
  -4.5027374266912647E-002          16           3          16           1
  -2.9099114002609488E-003          22           3          16           1
  -1.9460194057114592E-003          23           3          16           1
  -2.7344014035274589E-002          17           3          17           1
   1.0894063429134349E-015          24           3          17           1
   1.7087710821562716E-002          27           3          17           1
  -3.8996583739958623E-015          28           3          17           1
  -1.5856404218289447E-002          18           3          18           1
   1.1222576687397456E-015          22           3          18           1
   7.7716823980633802E-003          25           3          18           1
  -9.6118786755534594E-003          26           3          18           1
  -1.5856404218289669E-002          19           3          19           1
  -9.6118786755535930E-003          25           3          19           1
  -7.7716823980631946E-003          26           3          19           1
  -7.1742858922744625E-003          20           3          20           1
   1.0517032123652514E-015          28           3          20           1
  -7.1742858922747557E-003          21           3          21           1
   1.3300093863433905E-015          24           3          21           1
  -1.0286760641440944E-002          22           3          22           1
  -1.0286760641441059E-002          23           3          23           1
  -1.1949901801243574E-002          24           3          24           1
   8.9877107492530861E-015          27           3          24           1
  -2.2785331227632259E-003          28           3          24           1
  -1.6265018987873463E-002          25           3          25           1
  -1.6265018987873681E-002          26           3          26           1
  -1.9473481979205710E-002          27           3          27           1
  -2.5146551507759796E-014          28           3          27           1
  -2.9381186492504031E-002          28           3          28           1
  0.49877561149894889                4           4           1           1
  -3.2647495817883510E-015           7           4           1           1
   2.1291360479874559E-002          10           4           1           1
  0.15547189001847189               11           4           1           1
   5.0862092315639984E-014          12           4           1           1
   1.6653345369377348E-015          13           4           1           1
   2.9420910152566648E-015          17           4           1           1
  -3.1641356201816961E-015          20           4           1           1
   5.0237591864288333E-015          21           4           1           1
  -6.4857188379132263E-003          24           4           1           1
   1.3739009929736312E-014          27           4           1           1
   9.2878114253364119E-003          28           4           1           1
   1.5150207477443445E-014           4           4           2           1
   3.7135377552958260E-002           7           4           2           1
  -7.0531688128872005E-014          10           4           2           1
  -1.1081413564539844E-014          11           4           2           1
   1.8031788049573984E-003          12           4           2           1
  -3.7002340846825237E-002          17           4           2           1
  -4.6217370208712083E-014          24           4           2           1
   4.7109973678843660E-003          27           4           2           1
   3.9759862069388419E-014          28           4           2           1
  -7.7321375524740818E-002           4           4           3           1
  -2.6003504904892338E-015           7           4           3           1
  -8.7855117412529351E-003          10           4           3           1
  -6.0409314163843514E-002          11           4           3           1
  -1.9465332123935752E-014          12           4           3           1
   2.5795469430017377E-003          24           4           3           1